n -t * -s 0  -x 0 -y 0 -Z 0 -z 20  -v circle -c black
n -t * -s 1  -x 25 -y 25 -Z 0 -z 20  -v circle -c black
n -t * -s 2  -x 50 -y 50 -Z 0 -z 20  -v circle -c black
n -t * -s 3  -x 75 -y 75 -Z 0 -z 20  -v circle -c black
n -t * -s 4  -x 100 -y 100 -Z 0 -z 20  -v circle -c black
n -t * -s 5  -x 125 -y 125 -Z 0 -z 20  -v circle -c black
n -t * -s 6  -x 150 -y 150 -Z 0 -z 20  -v circle -c black
n -t * -s 7  -x 175 -y 175 -Z 0 -z 20  -v circle -c black
n -t * -s 8  -x 200 -y 200 -Z 0 -z 20  -v circle -c black
n -t * -s 9  -x 225 -y 225 -Z 0 -z 20  -v circle -c black
n -t * -s 10  -x 250 -y 250 -Z 0 -z 20  -v circle -c black
n -t * -s 11  -x 275 -y 275 -Z 0 -z 20  -v circle -c black
n -t * -s 12  -x 300 -y 300 -Z 0 -z 20  -v circle -c black
n -t * -s 13  -x 325 -y 325 -Z 0 -z 20  -v circle -c black
n -t * -s 14  -x 350 -y 350 -Z 0 -z 20  -v circle -c black
n -t * -s 15  -x 375 -y 375 -Z 0 -z 20  -v circle -c black
n -t * -s 16  -x 400 -y 400 -Z 0 -z 20  -v circle -c black
n -t * -s 17  -x 425 -y 425 -Z 0 -z 20  -v circle -c black
n -t * -s 18  -x 450 -y 450 -Z 0 -z 20  -v circle -c black
n -t * -s 19  -x 475 -y 475 -Z 0 -z 20  -v circle -c black
V -t * -v 1.0a5 -a 0
W -t * -x 500 -y 500
A -t * -n 1 -p 0 -o 0x7fffffff -c 30 -a 1
A -t * -h 1 -m 1073741823 -s 0
+ -t 0.088001372 -s 3 -d -1 -p message -e 32 -c 2 -a 0 -i 0 -k RTR 
- -t 0.088001372 -s 3 -d -1 -p message -e 32 -c 2 -a 0 -i 0 -k RTR
h -t 0.088001372 -s 3 -d -1 -p message -e 32 -c 2 -a 0 -i 0 -k RTR
r -t 0.089121490 -s 2 -d -1 -p message -e 32 -c 2 -a 0 -i 0 -k RTR
r -t 0.089121490 -s 4 -d -1 -p message -e 32 -c 2 -a 0 -i 0 -k RTR
r -t 0.089121607 -s 1 -d -1 -p message -e 32 -c 2 -a 0 -i 0 -k RTR
r -t 0.089121607 -s 5 -d -1 -p message -e 32 -c 2 -a 0 -i 0 -k RTR
r -t 0.089121725 -s 0 -d -1 -p message -e 32 -c 2 -a 0 -i 0 -k RTR
r -t 0.089121725 -s 6 -d -1 -p message -e 32 -c 2 -a 0 -i 0 -k RTR
r -t 0.089121843 -s 7 -d -1 -p message -e 32 -c 2 -a 0 -i 0 -k RTR
r -t 0.089121961 -s 8 -d -1 -p message -e 32 -c 2 -a 0 -i 0 -k RTR
r -t 0.089122079 -s 9 -d -1 -p message -e 32 -c 2 -a 0 -i 0 -k RTR
r -t 0.089122197 -s 10 -d -1 -p message -e 32 -c 2 -a 0 -i 0 -k RTR
+ -t 0.197327164 -s 9 -d -1 -p message -e 32 -c 2 -a 0 -i 1 -k RTR 
- -t 0.197327164 -s 9 -d -1 -p message -e 32 -c 2 -a 0 -i 1 -k RTR
h -t 0.197327164 -s 9 -d -1 -p message -e 32 -c 2 -a 0 -i 1 -k RTR
r -t 0.198427282 -s 8 -d -1 -p message -e 32 -c 2 -a 0 -i 1 -k RTR
r -t 0.198427282 -s 10 -d -1 -p message -e 32 -c 2 -a 0 -i 1 -k RTR
r -t 0.198427399 -s 7 -d -1 -p message -e 32 -c 2 -a 0 -i 1 -k RTR
r -t 0.198427399 -s 11 -d -1 -p message -e 32 -c 2 -a 0 -i 1 -k RTR
r -t 0.198427517 -s 6 -d -1 -p message -e 32 -c 2 -a 0 -i 1 -k RTR
r -t 0.198427517 -s 12 -d -1 -p message -e 32 -c 2 -a 0 -i 1 -k RTR
r -t 0.198427635 -s 5 -d -1 -p message -e 32 -c 2 -a 0 -i 1 -k RTR
r -t 0.198427635 -s 13 -d -1 -p message -e 32 -c 2 -a 0 -i 1 -k RTR
r -t 0.198427753 -s 4 -d -1 -p message -e 32 -c 2 -a 0 -i 1 -k RTR
r -t 0.198427753 -s 14 -d -1 -p message -e 32 -c 2 -a 0 -i 1 -k RTR
r -t 0.198427871 -s 3 -d -1 -p message -e 32 -c 2 -a 0 -i 1 -k RTR
r -t 0.198427871 -s 15 -d -1 -p message -e 32 -c 2 -a 0 -i 1 -k RTR
r -t 0.198427989 -s 2 -d -1 -p message -e 32 -c 2 -a 0 -i 1 -k RTR
r -t 0.198427989 -s 16 -d -1 -p message -e 32 -c 2 -a 0 -i 1 -k RTR
+ -t 0.229490150 -s 5 -d -1 -p message -e 32 -c 2 -a 0 -i 2 -k RTR 
- -t 0.229490150 -s 5 -d -1 -p message -e 32 -c 2 -a 0 -i 2 -k RTR
h -t 0.229490150 -s 5 -d -1 -p message -e 32 -c 2 -a 0 -i 2 -k RTR
r -t 0.230530267 -s 4 -d -1 -p message -e 32 -c 2 -a 0 -i 2 -k RTR
r -t 0.230530267 -s 6 -d -1 -p message -e 32 -c 2 -a 0 -i 2 -k RTR
r -t 0.230530385 -s 3 -d -1 -p message -e 32 -c 2 -a 0 -i 2 -k RTR
r -t 0.230530385 -s 7 -d -1 -p message -e 32 -c 2 -a 0 -i 2 -k RTR
r -t 0.230530503 -s 2 -d -1 -p message -e 32 -c 2 -a 0 -i 2 -k RTR
r -t 0.230530503 -s 8 -d -1 -p message -e 32 -c 2 -a 0 -i 2 -k RTR
r -t 0.230530621 -s 1 -d -1 -p message -e 32 -c 2 -a 0 -i 2 -k RTR
r -t 0.230530621 -s 9 -d -1 -p message -e 32 -c 2 -a 0 -i 2 -k RTR
r -t 0.230530739 -s 0 -d -1 -p message -e 32 -c 2 -a 0 -i 2 -k RTR
r -t 0.230530739 -s 10 -d -1 -p message -e 32 -c 2 -a 0 -i 2 -k RTR
r -t 0.230530857 -s 11 -d -1 -p message -e 32 -c 2 -a 0 -i 2 -k RTR
r -t 0.230530975 -s 12 -d -1 -p message -e 32 -c 2 -a 0 -i 2 -k RTR
+ -t 0.329411126 -s 2 -d -1 -p message -e 32 -c 2 -a 0 -i 3 -k RTR 
- -t 0.329411126 -s 2 -d -1 -p message -e 32 -c 2 -a 0 -i 3 -k RTR
h -t 0.329411126 -s 2 -d -1 -p message -e 32 -c 2 -a 0 -i 3 -k RTR
r -t 0.330351244 -s 1 -d -1 -p message -e 32 -c 2 -a 0 -i 3 -k RTR
r -t 0.330351244 -s 3 -d -1 -p message -e 32 -c 2 -a 0 -i 3 -k RTR
r -t 0.330351362 -s 0 -d -1 -p message -e 32 -c 2 -a 0 -i 3 -k RTR
r -t 0.330351362 -s 4 -d -1 -p message -e 32 -c 2 -a 0 -i 3 -k RTR
r -t 0.330351480 -s 5 -d -1 -p message -e 32 -c 2 -a 0 -i 3 -k RTR
r -t 0.330351598 -s 6 -d -1 -p message -e 32 -c 2 -a 0 -i 3 -k RTR
r -t 0.330351716 -s 7 -d -1 -p message -e 32 -c 2 -a 0 -i 3 -k RTR
r -t 0.330351833 -s 8 -d -1 -p message -e 32 -c 2 -a 0 -i 3 -k RTR
r -t 0.330351951 -s 9 -d -1 -p message -e 32 -c 2 -a 0 -i 3 -k RTR
+ -t 0.352967135 -s 8 -d -1 -p message -e 32 -c 2 -a 0 -i 4 -k RTR 
- -t 0.352967135 -s 8 -d -1 -p message -e 32 -c 2 -a 0 -i 4 -k RTR
h -t 0.352967135 -s 8 -d -1 -p message -e 32 -c 2 -a 0 -i 4 -k RTR
r -t 0.353967253 -s 7 -d -1 -p message -e 32 -c 2 -a 0 -i 4 -k RTR
r -t 0.353967253 -s 9 -d -1 -p message -e 32 -c 2 -a 0 -i 4 -k RTR
r -t 0.353967371 -s 6 -d -1 -p message -e 32 -c 2 -a 0 -i 4 -k RTR
r -t 0.353967371 -s 10 -d -1 -p message -e 32 -c 2 -a 0 -i 4 -k RTR
r -t 0.353967489 -s 5 -d -1 -p message -e 32 -c 2 -a 0 -i 4 -k RTR
r -t 0.353967489 -s 11 -d -1 -p message -e 32 -c 2 -a 0 -i 4 -k RTR
r -t 0.353967607 -s 4 -d -1 -p message -e 32 -c 2 -a 0 -i 4 -k RTR
r -t 0.353967607 -s 12 -d -1 -p message -e 32 -c 2 -a 0 -i 4 -k RTR
r -t 0.353967724 -s 3 -d -1 -p message -e 32 -c 2 -a 0 -i 4 -k RTR
r -t 0.353967724 -s 13 -d -1 -p message -e 32 -c 2 -a 0 -i 4 -k RTR
r -t 0.353967842 -s 2 -d -1 -p message -e 32 -c 2 -a 0 -i 4 -k RTR
r -t 0.353967842 -s 14 -d -1 -p message -e 32 -c 2 -a 0 -i 4 -k RTR
r -t 0.353967960 -s 1 -d -1 -p message -e 32 -c 2 -a 0 -i 4 -k RTR
r -t 0.353967960 -s 15 -d -1 -p message -e 32 -c 2 -a 0 -i 4 -k RTR
+ -t 0.441305651 -s 19 -d -1 -p message -e 32 -c 2 -a 0 -i 5 -k RTR 
- -t 0.441305651 -s 19 -d -1 -p message -e 32 -c 2 -a 0 -i 5 -k RTR
h -t 0.441305651 -s 19 -d -1 -p message -e 32 -c 2 -a 0 -i 5 -k RTR
r -t 0.442345769 -s 18 -d -1 -p message -e 32 -c 2 -a 0 -i 5 -k RTR
r -t 0.442345887 -s 17 -d -1 -p message -e 32 -c 2 -a 0 -i 5 -k RTR
r -t 0.442346005 -s 16 -d -1 -p message -e 32 -c 2 -a 0 -i 5 -k RTR
r -t 0.442346122 -s 15 -d -1 -p message -e 32 -c 2 -a 0 -i 5 -k RTR
r -t 0.442346240 -s 14 -d -1 -p message -e 32 -c 2 -a 0 -i 5 -k RTR
r -t 0.442346358 -s 13 -d -1 -p message -e 32 -c 2 -a 0 -i 5 -k RTR
r -t 0.442346476 -s 12 -d -1 -p message -e 32 -c 2 -a 0 -i 5 -k RTR
+ -t 0.521724294 -s 12 -d -1 -p message -e 32 -c 2 -a 0 -i 6 -k RTR 
- -t 0.521724294 -s 12 -d -1 -p message -e 32 -c 2 -a 0 -i 6 -k RTR
h -t 0.521724294 -s 12 -d -1 -p message -e 32 -c 2 -a 0 -i 6 -k RTR
r -t 0.522624412 -s 11 -d -1 -p message -e 32 -c 2 -a 0 -i 6 -k RTR
r -t 0.522624412 -s 13 -d -1 -p message -e 32 -c 2 -a 0 -i 6 -k RTR
r -t 0.522624530 -s 10 -d -1 -p message -e 32 -c 2 -a 0 -i 6 -k RTR
r -t 0.522624530 -s 14 -d -1 -p message -e 32 -c 2 -a 0 -i 6 -k RTR
r -t 0.522624648 -s 9 -d -1 -p message -e 32 -c 2 -a 0 -i 6 -k RTR
r -t 0.522624648 -s 15 -d -1 -p message -e 32 -c 2 -a 0 -i 6 -k RTR
r -t 0.522624766 -s 8 -d -1 -p message -e 32 -c 2 -a 0 -i 6 -k RTR
r -t 0.522624766 -s 16 -d -1 -p message -e 32 -c 2 -a 0 -i 6 -k RTR
r -t 0.522624884 -s 7 -d -1 -p message -e 32 -c 2 -a 0 -i 6 -k RTR
r -t 0.522624884 -s 17 -d -1 -p message -e 32 -c 2 -a 0 -i 6 -k RTR
r -t 0.522625001 -s 6 -d -1 -p message -e 32 -c 2 -a 0 -i 6 -k RTR
r -t 0.522625001 -s 18 -d -1 -p message -e 32 -c 2 -a 0 -i 6 -k RTR
r -t 0.522625119 -s 5 -d -1 -p message -e 32 -c 2 -a 0 -i 6 -k RTR
r -t 0.522625119 -s 19 -d -1 -p message -e 32 -c 2 -a 0 -i 6 -k RTR
+ -t 0.620020258 -s 0 -d -1 -p message -e 32 -c 2 -a 0 -i 7 -k RTR 
- -t 0.620020258 -s 0 -d -1 -p message -e 32 -c 2 -a 0 -i 7 -k RTR
h -t 0.620020258 -s 0 -d -1 -p message -e 32 -c 2 -a 0 -i 7 -k RTR
r -t 0.621140376 -s 1 -d -1 -p message -e 32 -c 2 -a 0 -i 7 -k RTR
r -t 0.621140494 -s 2 -d -1 -p message -e 32 -c 2 -a 0 -i 7 -k RTR
r -t 0.621140612 -s 3 -d -1 -p message -e 32 -c 2 -a 0 -i 7 -k RTR
r -t 0.621140730 -s 4 -d -1 -p message -e 32 -c 2 -a 0 -i 7 -k RTR
r -t 0.621140847 -s 5 -d -1 -p message -e 32 -c 2 -a 0 -i 7 -k RTR
r -t 0.621140965 -s 6 -d -1 -p message -e 32 -c 2 -a 0 -i 7 -k RTR
r -t 0.621141083 -s 7 -d -1 -p message -e 32 -c 2 -a 0 -i 7 -k RTR
+ -t 0.699549391 -s 11 -d -1 -p message -e 32 -c 2 -a 0 -i 8 -k RTR 
- -t 0.699549391 -s 11 -d -1 -p message -e 32 -c 2 -a 0 -i 8 -k RTR
h -t 0.699549391 -s 11 -d -1 -p message -e 32 -c 2 -a 0 -i 8 -k RTR
r -t 0.700609509 -s 10 -d -1 -p message -e 32 -c 2 -a 0 -i 8 -k RTR
r -t 0.700609509 -s 12 -d -1 -p message -e 32 -c 2 -a 0 -i 8 -k RTR
r -t 0.700609627 -s 9 -d -1 -p message -e 32 -c 2 -a 0 -i 8 -k RTR
r -t 0.700609627 -s 13 -d -1 -p message -e 32 -c 2 -a 0 -i 8 -k RTR
r -t 0.700609745 -s 8 -d -1 -p message -e 32 -c 2 -a 0 -i 8 -k RTR
r -t 0.700609745 -s 14 -d -1 -p message -e 32 -c 2 -a 0 -i 8 -k RTR
r -t 0.700609863 -s 7 -d -1 -p message -e 32 -c 2 -a 0 -i 8 -k RTR
r -t 0.700609863 -s 15 -d -1 -p message -e 32 -c 2 -a 0 -i 8 -k RTR
r -t 0.700609981 -s 6 -d -1 -p message -e 32 -c 2 -a 0 -i 8 -k RTR
r -t 0.700609981 -s 16 -d -1 -p message -e 32 -c 2 -a 0 -i 8 -k RTR
r -t 0.700610099 -s 5 -d -1 -p message -e 32 -c 2 -a 0 -i 8 -k RTR
r -t 0.700610099 -s 17 -d -1 -p message -e 32 -c 2 -a 0 -i 8 -k RTR
r -t 0.700610216 -s 4 -d -1 -p message -e 32 -c 2 -a 0 -i 8 -k RTR
r -t 0.700610216 -s 18 -d -1 -p message -e 32 -c 2 -a 0 -i 8 -k RTR
+ -t 0.818284921 -s 13 -d -1 -p message -e 32 -c 2 -a 0 -i 9 -k RTR 
- -t 0.818284921 -s 13 -d -1 -p message -e 32 -c 2 -a 0 -i 9 -k RTR
h -t 0.818284921 -s 13 -d -1 -p message -e 32 -c 2 -a 0 -i 9 -k RTR
r -t 0.819565039 -s 12 -d -1 -p message -e 32 -c 2 -a 0 -i 9 -k RTR
r -t 0.819565039 -s 14 -d -1 -p message -e 32 -c 2 -a 0 -i 9 -k RTR
r -t 0.819565157 -s 11 -d -1 -p message -e 32 -c 2 -a 0 -i 9 -k RTR
r -t 0.819565157 -s 15 -d -1 -p message -e 32 -c 2 -a 0 -i 9 -k RTR
r -t 0.819565275 -s 10 -d -1 -p message -e 32 -c 2 -a 0 -i 9 -k RTR
r -t 0.819565275 -s 16 -d -1 -p message -e 32 -c 2 -a 0 -i 9 -k RTR
r -t 0.819565393 -s 9 -d -1 -p message -e 32 -c 2 -a 0 -i 9 -k RTR
r -t 0.819565393 -s 17 -d -1 -p message -e 32 -c 2 -a 0 -i 9 -k RTR
r -t 0.819565511 -s 8 -d -1 -p message -e 32 -c 2 -a 0 -i 9 -k RTR
r -t 0.819565511 -s 18 -d -1 -p message -e 32 -c 2 -a 0 -i 9 -k RTR
r -t 0.819565628 -s 7 -d -1 -p message -e 32 -c 2 -a 0 -i 9 -k RTR
r -t 0.819565628 -s 19 -d -1 -p message -e 32 -c 2 -a 0 -i 9 -k RTR
r -t 0.819565746 -s 6 -d -1 -p message -e 32 -c 2 -a 0 -i 9 -k RTR
+ -t 0.852642458 -s 7 -d -1 -p message -e 32 -c 2 -a 0 -i 10 -k RTR 
- -t 0.852642458 -s 7 -d -1 -p message -e 32 -c 2 -a 0 -i 10 -k RTR
h -t 0.852642458 -s 7 -d -1 -p message -e 32 -c 2 -a 0 -i 10 -k RTR
r -t 0.853542576 -s 6 -d -1 -p message -e 32 -c 2 -a 0 -i 10 -k RTR
r -t 0.853542576 -s 8 -d -1 -p message -e 32 -c 2 -a 0 -i 10 -k RTR
r -t 0.853542694 -s 5 -d -1 -p message -e 32 -c 2 -a 0 -i 10 -k RTR
r -t 0.853542694 -s 9 -d -1 -p message -e 32 -c 2 -a 0 -i 10 -k RTR
r -t 0.853542812 -s 4 -d -1 -p message -e 32 -c 2 -a 0 -i 10 -k RTR
r -t 0.853542812 -s 10 -d -1 -p message -e 32 -c 2 -a 0 -i 10 -k RTR
r -t 0.853542930 -s 3 -d -1 -p message -e 32 -c 2 -a 0 -i 10 -k RTR
r -t 0.853542930 -s 11 -d -1 -p message -e 32 -c 2 -a 0 -i 10 -k RTR
r -t 0.853543047 -s 2 -d -1 -p message -e 32 -c 2 -a 0 -i 10 -k RTR
r -t 0.853543047 -s 12 -d -1 -p message -e 32 -c 2 -a 0 -i 10 -k RTR
r -t 0.853543165 -s 1 -d -1 -p message -e 32 -c 2 -a 0 -i 10 -k RTR
r -t 0.853543165 -s 13 -d -1 -p message -e 32 -c 2 -a 0 -i 10 -k RTR
r -t 0.853543283 -s 0 -d -1 -p message -e 32 -c 2 -a 0 -i 10 -k RTR
r -t 0.853543283 -s 14 -d -1 -p message -e 32 -c 2 -a 0 -i 10 -k RTR
+ -t 0.940375874 -s 15 -d -1 -p message -e 32 -c 2 -a 0 -i 11 -k RTR 
- -t 0.940375874 -s 15 -d -1 -p message -e 32 -c 2 -a 0 -i 11 -k RTR
h -t 0.940375874 -s 15 -d -1 -p message -e 32 -c 2 -a 0 -i 11 -k RTR
r -t 0.941535992 -s 14 -d -1 -p message -e 32 -c 2 -a 0 -i 11 -k RTR
r -t 0.941535992 -s 16 -d -1 -p message -e 32 -c 2 -a 0 -i 11 -k RTR
r -t 0.941536110 -s 13 -d -1 -p message -e 32 -c 2 -a 0 -i 11 -k RTR
r -t 0.941536110 -s 17 -d -1 -p message -e 32 -c 2 -a 0 -i 11 -k RTR
r -t 0.941536228 -s 12 -d -1 -p message -e 32 -c 2 -a 0 -i 11 -k RTR
r -t 0.941536228 -s 18 -d -1 -p message -e 32 -c 2 -a 0 -i 11 -k RTR
r -t 0.941536346 -s 11 -d -1 -p message -e 32 -c 2 -a 0 -i 11 -k RTR
r -t 0.941536346 -s 19 -d -1 -p message -e 32 -c 2 -a 0 -i 11 -k RTR
r -t 0.941536464 -s 10 -d -1 -p message -e 32 -c 2 -a 0 -i 11 -k RTR
r -t 0.941536581 -s 9 -d -1 -p message -e 32 -c 2 -a 0 -i 11 -k RTR
r -t 0.941536699 -s 8 -d -1 -p message -e 32 -c 2 -a 0 -i 11 -k RTR
+ -t 1.000000000 -s 0 -d -1 -p tcp -e 40 -c 2 -a 0 -i 12 -k AGT 
- -t 1.000000000 -s 0 -d -1 -p tcp -e 40 -c 2 -a 0 -i 12 -k AGT
h -t 1.000000000 -s 0 -d -1 -p tcp -e 40 -c 2 -a 0 -i 12 -k AGT
+ -t 1.000000000 -s 1 -d -1 -p tcp -e 40 -c 2 -a 0 -i 13 -k AGT 
- -t 1.000000000 -s 1 -d -1 -p tcp -e 40 -c 2 -a 0 -i 13 -k AGT
h -t 1.000000000 -s 1 -d -1 -p tcp -e 40 -c 2 -a 0 -i 13 -k AGT
+ -t 1.000000000 -s 2 -d -1 -p tcp -e 40 -c 2 -a 0 -i 14 -k AGT 
- -t 1.000000000 -s 2 -d -1 -p tcp -e 40 -c 2 -a 0 -i 14 -k AGT
h -t 1.000000000 -s 2 -d -1 -p tcp -e 40 -c 2 -a 0 -i 14 -k AGT
+ -t 1.000000000 -s 3 -d -1 -p tcp -e 40 -c 2 -a 0 -i 15 -k AGT 
- -t 1.000000000 -s 3 -d -1 -p tcp -e 40 -c 2 -a 0 -i 15 -k AGT
h -t 1.000000000 -s 3 -d -1 -p tcp -e 40 -c 2 -a 0 -i 15 -k AGT
+ -t 1.000000000 -s 4 -d -1 -p tcp -e 40 -c 2 -a 0 -i 16 -k AGT 
- -t 1.000000000 -s 4 -d -1 -p tcp -e 40 -c 2 -a 0 -i 16 -k AGT
h -t 1.000000000 -s 4 -d -1 -p tcp -e 40 -c 2 -a 0 -i 16 -k AGT
+ -t 1.000000000 -s 5 -d -1 -p tcp -e 40 -c 2 -a 0 -i 17 -k AGT 
- -t 1.000000000 -s 5 -d -1 -p tcp -e 40 -c 2 -a 0 -i 17 -k AGT
h -t 1.000000000 -s 5 -d -1 -p tcp -e 40 -c 2 -a 0 -i 17 -k AGT
+ -t 1.000000000 -s 6 -d -1 -p tcp -e 40 -c 2 -a 0 -i 18 -k AGT 
- -t 1.000000000 -s 6 -d -1 -p tcp -e 40 -c 2 -a 0 -i 18 -k AGT
h -t 1.000000000 -s 6 -d -1 -p tcp -e 40 -c 2 -a 0 -i 18 -k AGT
+ -t 1.000000000 -s 7 -d -1 -p tcp -e 40 -c 2 -a 0 -i 19 -k AGT 
- -t 1.000000000 -s 7 -d -1 -p tcp -e 40 -c 2 -a 0 -i 19 -k AGT
h -t 1.000000000 -s 7 -d -1 -p tcp -e 40 -c 2 -a 0 -i 19 -k AGT
+ -t 1.000000000 -s 8 -d -1 -p tcp -e 40 -c 2 -a 0 -i 20 -k AGT 
- -t 1.000000000 -s 8 -d -1 -p tcp -e 40 -c 2 -a 0 -i 20 -k AGT
h -t 1.000000000 -s 8 -d -1 -p tcp -e 40 -c 2 -a 0 -i 20 -k AGT
+ -t 1.000000000 -s 9 -d -1 -p tcp -e 40 -c 2 -a 0 -i 21 -k AGT 
- -t 1.000000000 -s 9 -d -1 -p tcp -e 40 -c 2 -a 0 -i 21 -k AGT
h -t 1.000000000 -s 9 -d -1 -p tcp -e 40 -c 2 -a 0 -i 21 -k AGT
+ -t 1.043158714 -s 14 -d -1 -p message -e 32 -c 2 -a 0 -i 22 -k RTR 
- -t 1.043158714 -s 14 -d -1 -p message -e 32 -c 2 -a 0 -i 22 -k RTR
h -t 1.043158714 -s 14 -d -1 -p message -e 32 -c 2 -a 0 -i 22 -k RTR
r -t 1.044558832 -s 13 -d -1 -p message -e 32 -c 2 -a 0 -i 22 -k RTR
r -t 1.044558832 -s 15 -d -1 -p message -e 32 -c 2 -a 0 -i 22 -k RTR
r -t 1.044558950 -s 12 -d -1 -p message -e 32 -c 2 -a 0 -i 22 -k RTR
r -t 1.044558950 -s 16 -d -1 -p message -e 32 -c 2 -a 0 -i 22 -k RTR
r -t 1.044559068 -s 11 -d -1 -p message -e 32 -c 2 -a 0 -i 22 -k RTR
r -t 1.044559068 -s 17 -d -1 -p message -e 32 -c 2 -a 0 -i 22 -k RTR
r -t 1.044559186 -s 10 -d -1 -p message -e 32 -c 2 -a 0 -i 22 -k RTR
r -t 1.044559186 -s 18 -d -1 -p message -e 32 -c 2 -a 0 -i 22 -k RTR
r -t 1.044559304 -s 9 -d -1 -p message -e 32 -c 2 -a 0 -i 22 -k RTR
r -t 1.044559304 -s 19 -d -1 -p message -e 32 -c 2 -a 0 -i 22 -k RTR
r -t 1.044559422 -s 8 -d -1 -p message -e 32 -c 2 -a 0 -i 22 -k RTR
r -t 1.044559539 -s 7 -d -1 -p message -e 32 -c 2 -a 0 -i 22 -k RTR
+ -t 1.285719404 -s 4 -d -1 -p message -e 32 -c 2 -a 0 -i 23 -k RTR 
- -t 1.285719404 -s 4 -d -1 -p message -e 32 -c 2 -a 0 -i 23 -k RTR
h -t 1.285719404 -s 4 -d -1 -p message -e 32 -c 2 -a 0 -i 23 -k RTR
r -t 1.287079522 -s 3 -d -1 -p message -e 32 -c 2 -a 0 -i 23 -k RTR
r -t 1.287079522 -s 5 -d -1 -p message -e 32 -c 2 -a 0 -i 23 -k RTR
r -t 1.287079640 -s 2 -d -1 -p message -e 32 -c 2 -a 0 -i 23 -k RTR
r -t 1.287079640 -s 6 -d -1 -p message -e 32 -c 2 -a 0 -i 23 -k RTR
r -t 1.287079758 -s 1 -d -1 -p message -e 32 -c 2 -a 0 -i 23 -k RTR
r -t 1.287079758 -s 7 -d -1 -p message -e 32 -c 2 -a 0 -i 23 -k RTR
r -t 1.287079876 -s 0 -d -1 -p message -e 32 -c 2 -a 0 -i 23 -k RTR
r -t 1.287079876 -s 8 -d -1 -p message -e 32 -c 2 -a 0 -i 23 -k RTR
r -t 1.287079993 -s 9 -d -1 -p message -e 32 -c 2 -a 0 -i 23 -k RTR
r -t 1.287080111 -s 10 -d -1 -p message -e 32 -c 2 -a 0 -i 23 -k RTR
r -t 1.287080229 -s 11 -d -1 -p message -e 32 -c 2 -a 0 -i 23 -k RTR
+ -t 1.386113549 -s 16 -d -1 -p message -e 32 -c 2 -a 0 -i 24 -k RTR 
- -t 1.386113549 -s 16 -d -1 -p message -e 32 -c 2 -a 0 -i 24 -k RTR
h -t 1.386113549 -s 16 -d -1 -p message -e 32 -c 2 -a 0 -i 24 -k RTR
r -t 1.387273667 -s 15 -d -1 -p message -e 32 -c 2 -a 0 -i 24 -k RTR
r -t 1.387273667 -s 17 -d -1 -p message -e 32 -c 2 -a 0 -i 24 -k RTR
r -t 1.387273785 -s 14 -d -1 -p message -e 32 -c 2 -a 0 -i 24 -k RTR
r -t 1.387273785 -s 18 -d -1 -p message -e 32 -c 2 -a 0 -i 24 -k RTR
r -t 1.387273903 -s 13 -d -1 -p message -e 32 -c 2 -a 0 -i 24 -k RTR
r -t 1.387273903 -s 19 -d -1 -p message -e 32 -c 2 -a 0 -i 24 -k RTR
r -t 1.387274021 -s 12 -d -1 -p message -e 32 -c 2 -a 0 -i 24 -k RTR
r -t 1.387274138 -s 11 -d -1 -p message -e 32 -c 2 -a 0 -i 24 -k RTR
r -t 1.387274256 -s 10 -d -1 -p message -e 32 -c 2 -a 0 -i 24 -k RTR
r -t 1.387274374 -s 9 -d -1 -p message -e 32 -c 2 -a 0 -i 24 -k RTR
+ -t 1.614058853 -s 10 -d -1 -p message -e 32 -c 2 -a 0 -i 25 -k RTR 
- -t 1.614058853 -s 10 -d -1 -p message -e 32 -c 2 -a 0 -i 25 -k RTR
h -t 1.614058853 -s 10 -d -1 -p message -e 32 -c 2 -a 0 -i 25 -k RTR
r -t 1.615058971 -s 9 -d -1 -p message -e 32 -c 2 -a 0 -i 25 -k RTR
r -t 1.615058971 -s 11 -d -1 -p message -e 32 -c 2 -a 0 -i 25 -k RTR
r -t 1.615059088 -s 8 -d -1 -p message -e 32 -c 2 -a 0 -i 25 -k RTR
r -t 1.615059088 -s 12 -d -1 -p message -e 32 -c 2 -a 0 -i 25 -k RTR
r -t 1.615059206 -s 7 -d -1 -p message -e 32 -c 2 -a 0 -i 25 -k RTR
r -t 1.615059206 -s 13 -d -1 -p message -e 32 -c 2 -a 0 -i 25 -k RTR
r -t 1.615059324 -s 6 -d -1 -p message -e 32 -c 2 -a 0 -i 25 -k RTR
r -t 1.615059324 -s 14 -d -1 -p message -e 32 -c 2 -a 0 -i 25 -k RTR
r -t 1.615059442 -s 5 -d -1 -p message -e 32 -c 2 -a 0 -i 25 -k RTR
r -t 1.615059442 -s 15 -d -1 -p message -e 32 -c 2 -a 0 -i 25 -k RTR
r -t 1.615059560 -s 4 -d -1 -p message -e 32 -c 2 -a 0 -i 25 -k RTR
r -t 1.615059560 -s 16 -d -1 -p message -e 32 -c 2 -a 0 -i 25 -k RTR
r -t 1.615059678 -s 3 -d -1 -p message -e 32 -c 2 -a 0 -i 25 -k RTR
r -t 1.615059678 -s 17 -d -1 -p message -e 32 -c 2 -a 0 -i 25 -k RTR
+ -t 1.681766466 -s 1 -d -1 -p message -e 32 -c 2 -a 0 -i 26 -k RTR 
- -t 1.681766466 -s 1 -d -1 -p message -e 32 -c 2 -a 0 -i 26 -k RTR
h -t 1.681766466 -s 1 -d -1 -p message -e 32 -c 2 -a 0 -i 26 -k RTR
r -t 1.682806584 -s 0 -d -1 -p message -e 32 -c 2 -a 0 -i 26 -k RTR
r -t 1.682806584 -s 2 -d -1 -p message -e 32 -c 2 -a 0 -i 26 -k RTR
r -t 1.682806702 -s 3 -d -1 -p message -e 32 -c 2 -a 0 -i 26 -k RTR
r -t 1.682806819 -s 4 -d -1 -p message -e 32 -c 2 -a 0 -i 26 -k RTR
r -t 1.682806937 -s 5 -d -1 -p message -e 32 -c 2 -a 0 -i 26 -k RTR
r -t 1.682807055 -s 6 -d -1 -p message -e 32 -c 2 -a 0 -i 26 -k RTR
r -t 1.682807173 -s 7 -d -1 -p message -e 32 -c 2 -a 0 -i 26 -k RTR
r -t 1.682807291 -s 8 -d -1 -p message -e 32 -c 2 -a 0 -i 26 -k RTR
+ -t 1.683302879 -s 18 -d -1 -p message -e 32 -c 2 -a 0 -i 27 -k RTR 
- -t 1.683302879 -s 18 -d -1 -p message -e 32 -c 2 -a 0 -i 27 -k RTR
h -t 1.683302879 -s 18 -d -1 -p message -e 32 -c 2 -a 0 -i 27 -k RTR
r -t 1.684262997 -s 17 -d -1 -p message -e 32 -c 2 -a 0 -i 27 -k RTR
r -t 1.684262997 -s 19 -d -1 -p message -e 32 -c 2 -a 0 -i 27 -k RTR
r -t 1.684263115 -s 16 -d -1 -p message -e 32 -c 2 -a 0 -i 27 -k RTR
r -t 1.684263233 -s 15 -d -1 -p message -e 32 -c 2 -a 0 -i 27 -k RTR
r -t 1.684263350 -s 14 -d -1 -p message -e 32 -c 2 -a 0 -i 27 -k RTR
r -t 1.684263468 -s 13 -d -1 -p message -e 32 -c 2 -a 0 -i 27 -k RTR
r -t 1.684263586 -s 12 -d -1 -p message -e 32 -c 2 -a 0 -i 27 -k RTR
r -t 1.684263704 -s 11 -d -1 -p message -e 32 -c 2 -a 0 -i 27 -k RTR
+ -t 1.724453976 -s 17 -d -1 -p message -e 32 -c 2 -a 0 -i 29 -k RTR 
- -t 1.724453976 -s 17 -d -1 -p message -e 32 -c 2 -a 0 -i 29 -k RTR
h -t 1.724453976 -s 17 -d -1 -p message -e 32 -c 2 -a 0 -i 29 -k RTR
r -t 1.725434094 -s 16 -d -1 -p message -e 32 -c 2 -a 0 -i 29 -k RTR
r -t 1.725434094 -s 18 -d -1 -p message -e 32 -c 2 -a 0 -i 29 -k RTR
r -t 1.725434212 -s 15 -d -1 -p message -e 32 -c 2 -a 0 -i 29 -k RTR
r -t 1.725434212 -s 19 -d -1 -p message -e 32 -c 2 -a 0 -i 29 -k RTR
r -t 1.725434330 -s 14 -d -1 -p message -e 32 -c 2 -a 0 -i 29 -k RTR
r -t 1.725434447 -s 13 -d -1 -p message -e 32 -c 2 -a 0 -i 29 -k RTR
r -t 1.725434565 -s 12 -d -1 -p message -e 32 -c 2 -a 0 -i 29 -k RTR
r -t 1.725434683 -s 11 -d -1 -p message -e 32 -c 2 -a 0 -i 29 -k RTR
r -t 1.725434801 -s 10 -d -1 -p message -e 32 -c 2 -a 0 -i 29 -k RTR
+ -t 1.727513713 -s 6 -d -1 -p message -e 32 -c 2 -a 0 -i 28 -k RTR 
- -t 1.727513713 -s 6 -d -1 -p message -e 32 -c 2 -a 0 -i 28 -k RTR
h -t 1.727513713 -s 6 -d -1 -p message -e 32 -c 2 -a 0 -i 28 -k RTR
r -t 1.728593831 -s 5 -d -1 -p message -e 32 -c 2 -a 0 -i 28 -k RTR
r -t 1.728593831 -s 7 -d -1 -p message -e 32 -c 2 -a 0 -i 28 -k RTR
r -t 1.728593949 -s 4 -d -1 -p message -e 32 -c 2 -a 0 -i 28 -k RTR
r -t 1.728593949 -s 8 -d -1 -p message -e 32 -c 2 -a 0 -i 28 -k RTR
r -t 1.728594067 -s 3 -d -1 -p message -e 32 -c 2 -a 0 -i 28 -k RTR
r -t 1.728594067 -s 9 -d -1 -p message -e 32 -c 2 -a 0 -i 28 -k RTR
r -t 1.728594185 -s 2 -d -1 -p message -e 32 -c 2 -a 0 -i 28 -k RTR
r -t 1.728594185 -s 10 -d -1 -p message -e 32 -c 2 -a 0 -i 28 -k RTR
r -t 1.728594302 -s 1 -d -1 -p message -e 32 -c 2 -a 0 -i 28 -k RTR
r -t 1.728594302 -s 11 -d -1 -p message -e 32 -c 2 -a 0 -i 28 -k RTR
r -t 1.728594420 -s 0 -d -1 -p message -e 32 -c 2 -a 0 -i 28 -k RTR
r -t 1.728594420 -s 12 -d -1 -p message -e 32 -c 2 -a 0 -i 28 -k RTR
r -t 1.728594538 -s 13 -d -1 -p message -e 32 -c 2 -a 0 -i 28 -k RTR
+ -t 4.000000000 -s 0 -d -1 -p tcp -e 40 -c 2 -a 0 -i 30 -k AGT 
- -t 4.000000000 -s 0 -d -1 -p tcp -e 40 -c 2 -a 0 -i 30 -k AGT
h -t 4.000000000 -s 0 -d -1 -p tcp -e 40 -c 2 -a 0 -i 30 -k AGT
+ -t 4.000000000 -s 1 -d -1 -p tcp -e 40 -c 2 -a 0 -i 31 -k AGT 
- -t 4.000000000 -s 1 -d -1 -p tcp -e 40 -c 2 -a 0 -i 31 -k AGT
h -t 4.000000000 -s 1 -d -1 -p tcp -e 40 -c 2 -a 0 -i 31 -k AGT
+ -t 4.000000000 -s 2 -d -1 -p tcp -e 40 -c 2 -a 0 -i 32 -k AGT 
- -t 4.000000000 -s 2 -d -1 -p tcp -e 40 -c 2 -a 0 -i 32 -k AGT
h -t 4.000000000 -s 2 -d -1 -p tcp -e 40 -c 2 -a 0 -i 32 -k AGT
+ -t 4.000000000 -s 3 -d -1 -p tcp -e 40 -c 2 -a 0 -i 33 -k AGT 
- -t 4.000000000 -s 3 -d -1 -p tcp -e 40 -c 2 -a 0 -i 33 -k AGT
h -t 4.000000000 -s 3 -d -1 -p tcp -e 40 -c 2 -a 0 -i 33 -k AGT
+ -t 4.000000000 -s 4 -d -1 -p tcp -e 40 -c 2 -a 0 -i 34 -k AGT 
- -t 4.000000000 -s 4 -d -1 -p tcp -e 40 -c 2 -a 0 -i 34 -k AGT
h -t 4.000000000 -s 4 -d -1 -p tcp -e 40 -c 2 -a 0 -i 34 -k AGT
+ -t 4.000000000 -s 5 -d -1 -p tcp -e 40 -c 2 -a 0 -i 35 -k AGT 
- -t 4.000000000 -s 5 -d -1 -p tcp -e 40 -c 2 -a 0 -i 35 -k AGT
h -t 4.000000000 -s 5 -d -1 -p tcp -e 40 -c 2 -a 0 -i 35 -k AGT
+ -t 4.000000000 -s 6 -d -1 -p tcp -e 40 -c 2 -a 0 -i 36 -k AGT 
- -t 4.000000000 -s 6 -d -1 -p tcp -e 40 -c 2 -a 0 -i 36 -k AGT
h -t 4.000000000 -s 6 -d -1 -p tcp -e 40 -c 2 -a 0 -i 36 -k AGT
+ -t 4.000000000 -s 7 -d -1 -p tcp -e 40 -c 2 -a 0 -i 37 -k AGT 
- -t 4.000000000 -s 7 -d -1 -p tcp -e 40 -c 2 -a 0 -i 37 -k AGT
h -t 4.000000000 -s 7 -d -1 -p tcp -e 40 -c 2 -a 0 -i 37 -k AGT
+ -t 4.000000000 -s 8 -d -1 -p tcp -e 40 -c 2 -a 0 -i 38 -k AGT 
- -t 4.000000000 -s 8 -d -1 -p tcp -e 40 -c 2 -a 0 -i 38 -k AGT
h -t 4.000000000 -s 8 -d -1 -p tcp -e 40 -c 2 -a 0 -i 38 -k AGT
+ -t 4.000000000 -s 9 -d -1 -p tcp -e 40 -c 2 -a 0 -i 39 -k AGT 
- -t 4.000000000 -s 9 -d -1 -p tcp -e 40 -c 2 -a 0 -i 39 -k AGT
h -t 4.000000000 -s 9 -d -1 -p tcp -e 40 -c 2 -a 0 -i 39 -k AGT
+ -t 10.000000000 -s 0 -d -1 -p tcp -e 40 -c 2 -a 0 -i 40 -k AGT 
- -t 10.000000000 -s 0 -d -1 -p tcp -e 40 -c 2 -a 0 -i 40 -k AGT
h -t 10.000000000 -s 0 -d -1 -p tcp -e 40 -c 2 -a 0 -i 40 -k AGT
+ -t 10.000000000 -s 1 -d -1 -p tcp -e 40 -c 2 -a 0 -i 41 -k AGT 
- -t 10.000000000 -s 1 -d -1 -p tcp -e 40 -c 2 -a 0 -i 41 -k AGT
h -t 10.000000000 -s 1 -d -1 -p tcp -e 40 -c 2 -a 0 -i 41 -k AGT
+ -t 10.000000000 -s 2 -d -1 -p tcp -e 40 -c 2 -a 0 -i 42 -k AGT 
- -t 10.000000000 -s 2 -d -1 -p tcp -e 40 -c 2 -a 0 -i 42 -k AGT
h -t 10.000000000 -s 2 -d -1 -p tcp -e 40 -c 2 -a 0 -i 42 -k AGT
+ -t 10.000000000 -s 3 -d -1 -p tcp -e 40 -c 2 -a 0 -i 43 -k AGT 
- -t 10.000000000 -s 3 -d -1 -p tcp -e 40 -c 2 -a 0 -i 43 -k AGT
h -t 10.000000000 -s 3 -d -1 -p tcp -e 40 -c 2 -a 0 -i 43 -k AGT
+ -t 10.000000000 -s 4 -d -1 -p tcp -e 40 -c 2 -a 0 -i 44 -k AGT 
- -t 10.000000000 -s 4 -d -1 -p tcp -e 40 -c 2 -a 0 -i 44 -k AGT
h -t 10.000000000 -s 4 -d -1 -p tcp -e 40 -c 2 -a 0 -i 44 -k AGT
+ -t 10.000000000 -s 5 -d -1 -p tcp -e 40 -c 2 -a 0 -i 45 -k AGT 
- -t 10.000000000 -s 5 -d -1 -p tcp -e 40 -c 2 -a 0 -i 45 -k AGT
h -t 10.000000000 -s 5 -d -1 -p tcp -e 40 -c 2 -a 0 -i 45 -k AGT
+ -t 10.000000000 -s 6 -d -1 -p tcp -e 40 -c 2 -a 0 -i 46 -k AGT 
- -t 10.000000000 -s 6 -d -1 -p tcp -e 40 -c 2 -a 0 -i 46 -k AGT
h -t 10.000000000 -s 6 -d -1 -p tcp -e 40 -c 2 -a 0 -i 46 -k AGT
+ -t 10.000000000 -s 7 -d -1 -p tcp -e 40 -c 2 -a 0 -i 47 -k AGT 
- -t 10.000000000 -s 7 -d -1 -p tcp -e 40 -c 2 -a 0 -i 47 -k AGT
h -t 10.000000000 -s 7 -d -1 -p tcp -e 40 -c 2 -a 0 -i 47 -k AGT
+ -t 10.000000000 -s 8 -d -1 -p tcp -e 40 -c 2 -a 0 -i 48 -k AGT 
- -t 10.000000000 -s 8 -d -1 -p tcp -e 40 -c 2 -a 0 -i 48 -k AGT
h -t 10.000000000 -s 8 -d -1 -p tcp -e 40 -c 2 -a 0 -i 48 -k AGT
+ -t 10.000000000 -s 9 -d -1 -p tcp -e 40 -c 2 -a 0 -i 49 -k AGT 
- -t 10.000000000 -s 9 -d -1 -p tcp -e 40 -c 2 -a 0 -i 49 -k AGT
h -t 10.000000000 -s 9 -d -1 -p tcp -e 40 -c 2 -a 0 -i 49 -k AGT
+ -t 11.799376818 -s 2 -d -1 -p message -e 32 -c 2 -a 0 -i 50 -k RTR 
- -t 11.799376818 -s 2 -d -1 -p message -e 32 -c 2 -a 0 -i 50 -k RTR
h -t 11.799376818 -s 2 -d -1 -p message -e 32 -c 2 -a 0 -i 50 -k RTR
r -t 11.800716935 -s 1 -d -1 -p message -e 32 -c 2 -a 0 -i 50 -k RTR
r -t 11.800716935 -s 3 -d -1 -p message -e 32 -c 2 -a 0 -i 50 -k RTR
r -t 11.800717053 -s 0 -d -1 -p message -e 32 -c 2 -a 0 -i 50 -k RTR
r -t 11.800717053 -s 4 -d -1 -p message -e 32 -c 2 -a 0 -i 50 -k RTR
r -t 11.800717171 -s 5 -d -1 -p message -e 32 -c 2 -a 0 -i 50 -k RTR
r -t 11.800717289 -s 6 -d -1 -p message -e 32 -c 2 -a 0 -i 50 -k RTR
r -t 11.800717407 -s 7 -d -1 -p message -e 32 -c 2 -a 0 -i 50 -k RTR
r -t 11.800717525 -s 8 -d -1 -p message -e 32 -c 2 -a 0 -i 50 -k RTR
r -t 11.800717643 -s 9 -d -1 -p message -e 32 -c 2 -a 0 -i 50 -k RTR
+ -t 12.064560737 -s 8 -d -1 -p message -e 32 -c 2 -a 0 -i 51 -k RTR 
- -t 12.064560737 -s 8 -d -1 -p message -e 32 -c 2 -a 0 -i 51 -k RTR
h -t 12.064560737 -s 8 -d -1 -p message -e 32 -c 2 -a 0 -i 51 -k RTR
r -t 12.065400855 -s 7 -d -1 -p message -e 32 -c 2 -a 0 -i 51 -k RTR
r -t 12.065400855 -s 9 -d -1 -p message -e 32 -c 2 -a 0 -i 51 -k RTR
r -t 12.065400973 -s 6 -d -1 -p message -e 32 -c 2 -a 0 -i 51 -k RTR
r -t 12.065400973 -s 10 -d -1 -p message -e 32 -c 2 -a 0 -i 51 -k RTR
r -t 12.065401091 -s 5 -d -1 -p message -e 32 -c 2 -a 0 -i 51 -k RTR
r -t 12.065401091 -s 11 -d -1 -p message -e 32 -c 2 -a 0 -i 51 -k RTR
r -t 12.065401209 -s 4 -d -1 -p message -e 32 -c 2 -a 0 -i 51 -k RTR
r -t 12.065401209 -s 12 -d -1 -p message -e 32 -c 2 -a 0 -i 51 -k RTR
r -t 12.065401326 -s 3 -d -1 -p message -e 32 -c 2 -a 0 -i 51 -k RTR
r -t 12.065401326 -s 13 -d -1 -p message -e 32 -c 2 -a 0 -i 51 -k RTR
r -t 12.065401444 -s 2 -d -1 -p message -e 32 -c 2 -a 0 -i 51 -k RTR
r -t 12.065401444 -s 14 -d -1 -p message -e 32 -c 2 -a 0 -i 51 -k RTR
r -t 12.065401562 -s 1 -d -1 -p message -e 32 -c 2 -a 0 -i 51 -k RTR
r -t 12.065401562 -s 15 -d -1 -p message -e 32 -c 2 -a 0 -i 51 -k RTR
+ -t 12.093196398 -s 5 -d -1 -p message -e 32 -c 2 -a 0 -i 54 -k RTR 
- -t 12.093196398 -s 5 -d -1 -p message -e 32 -c 2 -a 0 -i 54 -k RTR
h -t 12.093196398 -s 5 -d -1 -p message -e 32 -c 2 -a 0 -i 54 -k RTR
+ -t 12.093350931 -s 1 -d -1 -p message -e 32 -c 2 -a 0 -i 53 -k RTR 
- -t 12.093350931 -s 1 -d -1 -p message -e 32 -c 2 -a 0 -i 53 -k RTR
h -t 12.093350931 -s 1 -d -1 -p message -e 32 -c 2 -a 0 -i 53 -k RTR
+ -t 12.093425538 -s 4 -d -1 -p message -e 32 -c 2 -a 0 -i 52 -k RTR 
- -t 12.093425538 -s 4 -d -1 -p message -e 32 -c 2 -a 0 -i 52 -k RTR
h -t 12.093425538 -s 4 -d -1 -p message -e 32 -c 2 -a 0 -i 52 -k RTR
+ -t 12.093969466 -s 6 -d -1 -p message -e 32 -c 2 -a 0 -i 56 -k RTR 
- -t 12.093969466 -s 6 -d -1 -p message -e 32 -c 2 -a 0 -i 56 -k RTR
h -t 12.093969466 -s 6 -d -1 -p message -e 32 -c 2 -a 0 -i 56 -k RTR
r -t 12.094196516 -s 4 -d -1 -p message -e 32 -c 2 -a 0 -i 54 -k RTR
r -t 12.094196516 -s 6 -d -1 -p message -e 32 -c 2 -a 0 -i 54 -k RTR
r -t 12.094196634 -s 3 -d -1 -p message -e 32 -c 2 -a 0 -i 54 -k RTR
r -t 12.094196634 -s 7 -d -1 -p message -e 32 -c 2 -a 0 -i 54 -k RTR
r -t 12.094196752 -s 2 -d -1 -p message -e 32 -c 2 -a 0 -i 54 -k RTR
r -t 12.094196752 -s 8 -d -1 -p message -e 32 -c 2 -a 0 -i 54 -k RTR
r -t 12.094196870 -s 1 -d -1 -p message -e 32 -c 2 -a 0 -i 54 -k RTR
r -t 12.094196870 -s 9 -d -1 -p message -e 32 -c 2 -a 0 -i 54 -k RTR
r -t 12.094196988 -s 0 -d -1 -p message -e 32 -c 2 -a 0 -i 54 -k RTR
r -t 12.094196988 -s 10 -d -1 -p message -e 32 -c 2 -a 0 -i 54 -k RTR