s 0.088001372 _3_ RTR  --- 0 message 32 [0 0 0 0] ------- [3:255 -1:255 32 0] 
r 0.089121490 _2_ RTR  --- 0 message 32 [0 ffffffff 3 800] ------- [3:255 -1:255 32 0] 
r 0.089121490 _4_ RTR  --- 0 message 32 [0 ffffffff 3 800] ------- [3:255 -1:255 32 0] 
r 0.089121607 _1_ RTR  --- 0 message 32 [0 ffffffff 3 800] ------- [3:255 -1:255 32 0] 
r 0.089121607 _5_ RTR  --- 0 message 32 [0 ffffffff 3 800] ------- [3:255 -1:255 32 0] 
r 0.089121725 _0_ RTR  --- 0 message 32 [0 ffffffff 3 800] ------- [3:255 -1:255 32 0] 
r 0.089121725 _6_ RTR  --- 0 message 32 [0 ffffffff 3 800] ------- [3:255 -1:255 32 0] 
r 0.089121843 _7_ RTR  --- 0 message 32 [0 ffffffff 3 800] ------- [3:255 -1:255 32 0] 
r 0.089121961 _8_ RTR  --- 0 message 32 [0 ffffffff 3 800] ------- [3:255 -1:255 32 0] 
r 0.089122079 _9_ RTR  --- 0 message 32 [0 ffffffff 3 800] ------- [3:255 -1:255 32 0] 
r 0.089122197 _10_ RTR  --- 0 message 32 [0 ffffffff 3 800] ------- [3:255 -1:255 32 0] 
s 0.197327164 _9_ RTR  --- 1 message 32 [0 0 0 0] ------- [9:255 -1:255 32 0] 
r 0.198427282 _8_ RTR  --- 1 message 32 [0 ffffffff 9 800] ------- [9:255 -1:255 32 0] 
r 0.198427282 _10_ RTR  --- 1 message 32 [0 ffffffff 9 800] ------- [9:255 -1:255 32 0] 
r 0.198427399 _7_ RTR  --- 1 message 32 [0 ffffffff 9 800] ------- [9:255 -1:255 32 0] 
r 0.198427399 _11_ RTR  --- 1 message 32 [0 ffffffff 9 800] ------- [9:255 -1:255 32 0] 
r 0.198427517 _6_ RTR  --- 1 message 32 [0 ffffffff 9 800] ------- [9:255 -1:255 32 0] 
r 0.198427517 _12_ RTR  --- 1 message 32 [0 ffffffff 9 800] ------- [9:255 -1:255 32 0] 
r 0.198427635 _5_ RTR  --- 1 message 32 [0 ffffffff 9 800] ------- [9:255 -1:255 32 0] 
r 0.198427635 _13_ RTR  --- 1 message 32 [0 ffffffff 9 800] ------- [9:255 -1:255 32 0] 
r 0.198427753 _4_ RTR  --- 1 message 32 [0 ffffffff 9 800] ------- [9:255 -1:255 32 0] 
r 0.198427753 _14_ RTR  --- 1 message 32 [0 ffffffff 9 800] ------- [9:255 -1:255 32 0] 
r 0.198427871 _3_ RTR  --- 1 message 32 [0 ffffffff 9 800] ------- [9:255 -1:255 32 0] 
r 0.198427871 _15_ RTR  --- 1 message 32 [0 ffffffff 9 800] ------- [9:255 -1:255 32 0] 
r 0.198427989 _2_ RTR  --- 1 message 32 [0 ffffffff 9 800] ------- [9:255 -1:255 32 0] 
r 0.198427989 _16_ RTR  --- 1 message 32 [0 ffffffff 9 800] ------- [9:255 -1:255 32 0] 
s 0.229490150 _5_ RTR  --- 2 message 32 [0 0 0 0] ------- [5:255 -1:255 32 0] 
r 0.230530267 _4_ RTR  --- 2 message 32 [0 ffffffff 5 800] ------- [5:255 -1:255 32 0] 
r 0.230530267 _6_ RTR  --- 2 message 32 [0 ffffffff 5 800] ------- [5:255 -1:255 32 0] 
r 0.230530385 _3_ RTR  --- 2 message 32 [0 ffffffff 5 800] ------- [5:255 -1:255 32 0] 
r 0.230530385 _7_ RTR  --- 2 message 32 [0 ffffffff 5 800] ------- [5:255 -1:255 32 0] 
r 0.230530503 _2_ RTR  --- 2 message 32 [0 ffffffff 5 800] ------- [5:255 -1:255 32 0] 
r 0.230530503 _8_ RTR  --- 2 message 32 [0 ffffffff 5 800] ------- [5:255 -1:255 32 0] 
r 0.230530621 _1_ RTR  --- 2 message 32 [0 ffffffff 5 800] ------- [5:255 -1:255 32 0] 
r 0.230530621 _9_ RTR  --- 2 message 32 [0 ffffffff 5 800] ------- [5:255 -1:255 32 0] 
r 0.230530739 _0_ RTR  --- 2 message 32 [0 ffffffff 5 800] ------- [5:255 -1:255 32 0] 
r 0.230530739 _10_ RTR  --- 2 message 32 [0 ffffffff 5 800] ------- [5:255 -1:255 32 0] 
r 0.230530857 _11_ RTR  --- 2 message 32 [0 ffffffff 5 800] ------- [5:255 -1:255 32 0] 
r 0.230530975 _12_ RTR  --- 2 message 32 [0 ffffffff 5 800] ------- [5:255 -1:255 32 0] 
s 0.329411126 _2_ RTR  --- 3 message 32 [0 0 0 0] ------- [2:255 -1:255 32 0] 
r 0.330351244 _1_ RTR  --- 3 message 32 [0 ffffffff 2 800] ------- [2:255 -1:255 32 0] 
r 0.330351244 _3_ RTR  --- 3 message 32 [0 ffffffff 2 800] ------- [2:255 -1:255 32 0] 
r 0.330351362 _0_ RTR  --- 3 message 32 [0 ffffffff 2 800] ------- [2:255 -1:255 32 0] 
r 0.330351362 _4_ RTR  --- 3 message 32 [0 ffffffff 2 800] ------- [2:255 -1:255 32 0] 
r 0.330351480 _5_ RTR  --- 3 message 32 [0 ffffffff 2 800] ------- [2:255 -1:255 32 0] 
r 0.330351598 _6_ RTR  --- 3 message 32 [0 ffffffff 2 800] ------- [2:255 -1:255 32 0] 
r 0.330351716 _7_ RTR  --- 3 message 32 [0 ffffffff 2 800] ------- [2:255 -1:255 32 0] 
r 0.330351833 _8_ RTR  --- 3 message 32 [0 ffffffff 2 800] ------- [2:255 -1:255 32 0] 
r 0.330351951 _9_ RTR  --- 3 message 32 [0 ffffffff 2 800] ------- [2:255 -1:255 32 0] 
s 0.352967135 _8_ RTR  --- 4 message 32 [0 0 0 0] ------- [8:255 -1:255 32 0] 
r 0.353967253 _7_ RTR  --- 4 message 32 [0 ffffffff 8 800] ------- [8:255 -1:255 32 0] 
r 0.353967253 _9_ RTR  --- 4 message 32 [0 ffffffff 8 800] ------- [8:255 -1:255 32 0] 
r 0.353967371 _6_ RTR  --- 4 message 32 [0 ffffffff 8 800] ------- [8:255 -1:255 32 0] 
r 0.353967371 _10_ RTR  --- 4 message 32 [0 ffffffff 8 800] ------- [8:255 -1:255 32 0] 
r 0.353967489 _5_ RTR  --- 4 message 32 [0 ffffffff 8 800] ------- [8:255 -1:255 32 0] 
r 0.353967489 _11_ RTR  --- 4 message 32 [0 ffffffff 8 800] ------- [8:255 -1:255 32 0] 
r 0.353967607 _4_ RTR  --- 4 message 32 [0 ffffffff 8 800] ------- [8:255 -1:255 32 0] 
r 0.353967607 _12_ RTR  --- 4 message 32 [0 ffffffff 8 800] ------- [8:255 -1:255 32 0] 
r 0.353967724 _3_ RTR  --- 4 message 32 [0 ffffffff 8 800] ------- [8:255 -1:255 32 0] 
r 0.353967724 _13_ RTR  --- 4 message 32 [0 ffffffff 8 800] ------- [8:255 -1:255 32 0] 
r 0.353967842 _2_ RTR  --- 4 message 32 [0 ffffffff 8 800] ------- [8:255 -1:255 32 0] 
r 0.353967842 _14_ RTR  --- 4 message 32 [0 ffffffff 8 800] ------- [8:255 -1:255 32 0] 
r 0.353967960 _1_ RTR  --- 4 message 32 [0 ffffffff 8 800] ------- [8:255 -1:255 32 0] 
r 0.353967960 _15_ RTR  --- 4 message 32 [0 ffffffff 8 800] ------- [8:255 -1:255 32 0] 
s 0.441305651 _19_ RTR  --- 5 message 32 [0 0 0 0] ------- [19:255 -1:255 32 0] 
r 0.442345769 _18_ RTR  --- 5 message 32 [0 ffffffff 13 800] ------- [19:255 -1:255 32 0] 
r 0.442345887 _17_ RTR  --- 5 message 32 [0 ffffffff 13 800] ------- [19:255 -1:255 32 0] 
r 0.442346005 _16_ RTR  --- 5 message 32 [0 ffffffff 13 800] ------- [19:255 -1:255 32 0] 
r 0.442346122 _15_ RTR  --- 5 message 32 [0 ffffffff 13 800] ------- [19:255 -1:255 32 0] 
r 0.442346240 _14_ RTR  --- 5 message 32 [0 ffffffff 13 800] ------- [19:255 -1:255 32 0] 
r 0.442346358 _13_ RTR  --- 5 message 32 [0 ffffffff 13 800] ------- [19:255 -1:255 32 0] 
r 0.442346476 _12_ RTR  --- 5 message 32 [0 ffffffff 13 800] ------- [19:255 -1:255 32 0] 
s 0.521724294 _12_ RTR  --- 6 message 32 [0 0 0 0] ------- [12:255 -1:255 32 0] 
r 0.522624412 _11_ RTR  --- 6 message 32 [0 ffffffff c 800] ------- [12:255 -1:255 32 0] 
r 0.522624412 _13_ RTR  --- 6 message 32 [0 ffffffff c 800] ------- [12:255 -1:255 32 0] 
r 0.522624530 _10_ RTR  --- 6 message 32 [0 ffffffff c 800] ------- [12:255 -1:255 32 0] 
r 0.522624530 _14_ RTR  --- 6 message 32 [0 ffffffff c 800] ------- [12:255 -1:255 32 0] 
r 0.522624648 _9_ RTR  --- 6 message 32 [0 ffffffff c 800] ------- [12:255 -1:255 32 0] 
r 0.522624648 _15_ RTR  --- 6 message 32 [0 ffffffff c 800] ------- [12:255 -1:255 32 0] 
r 0.522624766 _8_ RTR  --- 6 message 32 [0 ffffffff c 800] ------- [12:255 -1:255 32 0] 
r 0.522624766 _16_ RTR  --- 6 message 32 [0 ffffffff c 800] ------- [12:255 -1:255 32 0] 
r 0.522624884 _7_ RTR  --- 6 message 32 [0 ffffffff c 800] ------- [12:255 -1:255 32 0] 
r 0.522624884 _17_ RTR  --- 6 message 32 [0 ffffffff c 800] ------- [12:255 -1:255 32 0] 
r 0.522625001 _6_ RTR  --- 6 message 32 [0 ffffffff c 800] ------- [12:255 -1:255 32 0] 
r 0.522625001 _18_ RTR  --- 6 message 32 [0 ffffffff c 800] ------- [12:255 -1:255 32 0] 
r 0.522625119 _5_ RTR  --- 6 message 32 [0 ffffffff c 800] ------- [12:255 -1:255 32 0] 
r 0.522625119 _19_ RTR  --- 6 message 32 [0 ffffffff c 800] ------- [12:255 -1:255 32 0] 
s 0.620020258 _0_ RTR  --- 7 message 32 [0 0 0 0] ------- [0:255 -1:255 32 0] 
r 0.621140376 _1_ RTR  --- 7 message 32 [0 ffffffff 0 800] ------- [0:255 -1:255 32 0] 
r 0.621140494 _2_ RTR  --- 7 message 32 [0 ffffffff 0 800] ------- [0:255 -1:255 32 0] 
r 0.621140612 _3_ RTR  --- 7 message 32 [0 ffffffff 0 800] ------- [0:255 -1:255 32 0] 
r 0.621140730 _4_ RTR  --- 7 message 32 [0 ffffffff 0 800] ------- [0:255 -1:255 32 0] 
r 0.621140847 _5_ RTR  --- 7 message 32 [0 ffffffff 0 800] ------- [0:255 -1:255 32 0] 
r 0.621140965 _6_ RTR  --- 7 message 32 [0 ffffffff 0 800] ------- [0:255 -1:255 32 0] 
r 0.621141083 _7_ RTR  --- 7 message 32 [0 ffffffff 0 800] ------- [0:255 -1:255 32 0] 
s 0.699549391 _11_ RTR  --- 8 message 32 [0 0 0 0] ------- [11:255 -1:255 32 0] 
r 0.700609509 _10_ RTR  --- 8 message 32 [0 ffffffff b 800] ------- [11:255 -1:255 32 0] 
r 0.700609509 _12_ RTR  --- 8 message 32 [0 ffffffff b 800] ------- [11:255 -1:255 32 0] 
r 0.700609627 _9_ RTR  --- 8 message 32 [0 ffffffff b 800] ------- [11:255 -1:255 32 0] 
r 0.700609627 _13_ RTR  --- 8 message 32 [0 ffffffff b 800] ------- [11:255 -1:255 32 0] 
r 0.700609745 _8_ RTR  --- 8 message 32 [0 ffffffff b 800] ------- [11:255 -1:255 32 0] 
r 0.700609745 _14_ RTR  --- 8 message 32 [0 ffffffff b 800] ------- [11:255 -1:255 32 0] 
r 0.700609863 _7_ RTR  --- 8 message 32 [0 ffffffff b 800] ------- [11:255 -1:255 32 0] 
r 0.700609863 _15_ RTR  --- 8 message 32 [0 ffffffff b 800] ------- [11:255 -1:255 32 0] 
r 0.700609981 _6_ RTR  --- 8 message 32 [0 ffffffff b 800] ------- [11:255 -1:255 32 0] 
r 0.700609981 _16_ RTR  --- 8 message 32 [0 ffffffff b 800] ------- [11:255 -1:255 32 0] 
r 0.700610099 _5_ RTR  --- 8 message 32 [0 ffffffff b 800] ------- [11:255 -1:255 32 0] 
r 0.700610099 _17_ RTR  --- 8 message 32 [0 ffffffff b 800] ------- [11:255 -1:255 32 0] 
r 0.700610216 _4_ RTR  --- 8 message 32 [0 ffffffff b 800] ------- [11:255 -1:255 32 0] 
r 0.700610216 _18_ RTR  --- 8 message 32 [0 ffffffff b 800] ------- [11:255 -1:255 32 0] 
s 0.818284921 _13_ RTR  --- 9 message 32 [0 0 0 0] ------- [13:255 -1:255 32 0] 
r 0.819565039 _12_ RTR  --- 9 message 32 [0 ffffffff d 800] ------- [13:255 -1:255 32 0] 
r 0.819565039 _14_ RTR  --- 9 message 32 [0 ffffffff d 800] ------- [13:255 -1:255 32 0] 
r 0.819565157 _11_ RTR  --- 9 message 32 [0 ffffffff d 800] ------- [13:255 -1:255 32 0] 
r 0.819565157 _15_ RTR  --- 9 message 32 [0 ffffffff d 800] ------- [13:255 -1:255 32 0] 
r 0.819565275 _10_ RTR  --- 9 message 32 [0 ffffffff d 800] ------- [13:255 -1:255 32 0] 
r 0.819565275 _16_ RTR  --- 9 message 32 [0 ffffffff d 800] ------- [13:255 -1:255 32 0] 
r 0.819565393 _9_ RTR  --- 9 message 32 [0 ffffffff d 800] ------- [13:255 -1:255 32 0] 
r 0.819565393 _17_ RTR  --- 9 message 32 [0 ffffffff d 800] ------- [13:255 -1:255 32 0] 
r 0.819565511 _8_ RTR  --- 9 message 32 [0 ffffffff d 800] ------- [13:255 -1:255 32 0] 
r 0.819565511 _18_ RTR  --- 9 message 32 [0 ffffffff d 800] ------- [13:255 -1:255 32 0] 
r 0.819565628 _7_ RTR  --- 9 message 32 [0 ffffffff d 800] ------- [13:255 -1:255 32 0] 
r 0.819565628 _19_ RTR  --- 9 message 32 [0 ffffffff d 800] ------- [13:255 -1:255 32 0] 
r 0.819565746 _6_ RTR  --- 9 message 32 [0 ffffffff d 800] ------- [13:255 -1:255 32 0] 
s 0.852642458 _7_ RTR  --- 10 message 32 [0 0 0 0] ------- [7:255 -1:255 32 0] 
r 0.853542576 _6_ RTR  --- 10 message 32 [0 ffffffff 7 800] ------- [7:255 -1:255 32 0] 
r 0.853542576 _8_ RTR  --- 10 message 32 [0 ffffffff 7 800] ------- [7:255 -1:255 32 0] 
r 0.853542694 _5_ RTR  --- 10 message 32 [0 ffffffff 7 800] ------- [7:255 -1:255 32 0] 
r 0.853542694 _9_ RTR  --- 10 message 32 [0 ffffffff 7 800] ------- [7:255 -1:255 32 0] 
r 0.853542812 _4_ RTR  --- 10 message 32 [0 ffffffff 7 800] ------- [7:255 -1:255 32 0] 
r 0.853542812 _10_ RTR  --- 10 message 32 [0 ffffffff 7 800] ------- [7:255 -1:255 32 0] 
r 0.853542930 _3_ RTR  --- 10 message 32 [0 ffffffff 7 800] ------- [7:255 -1:255 32 0] 
r 0.853542930 _11_ RTR  --- 10 message 32 [0 ffffffff 7 800] ------- [7:255 -1:255 32 0] 
r 0.853543047 _2_ RTR  --- 10 message 32 [0 ffffffff 7 800] ------- [7:255 -1:255 32 0] 
r 0.853543047 _12_ RTR  --- 10 message 32 [0 ffffffff 7 800] ------- [7:255 -1:255 32 0] 
r 0.853543165 _1_ RTR  --- 10 message 32 [0 ffffffff 7 800] ------- [7:255 -1:255 32 0] 
r 0.853543165 _13_ RTR  --- 10 message 32 [0 ffffffff 7 800] ------- [7:255 -1:255 32 0] 
r 0.853543283 _0_ RTR  --- 10 message 32 [0 ffffffff 7 800] ------- [7:255 -1:255 32 0] 
r 0.853543283 _14_ RTR  --- 10 message 32 [0 ffffffff 7 800] ------- [7:255 -1:255 32 0] 
s 0.940375874 _15_ RTR  --- 11 message 32 [0 0 0 0] ------- [15:255 -1:255 32 0] 
r 0.941535992 _14_ RTR  --- 11 message 32 [0 ffffffff f 800] ------- [15:255 -1:255 32 0] 
r 0.941535992 _16_ RTR  --- 11 message 32 [0 ffffffff f 800] ------- [15:255 -1:255 32 0] 
r 0.941536110 _13_ RTR  --- 11 message 32 [0 ffffffff f 800] ------- [15:255 -1:255 32 0] 
r 0.941536110 _17_ RTR  --- 11 message 32 [0 ffffffff f 800] ------- [15:255 -1:255 32 0] 
r 0.941536228 _12_ RTR  --- 11 message 32 [0 ffffffff f 800] ------- [15:255 -1:255 32 0] 
r 0.941536228 _18_ RTR  --- 11 message 32 [0 ffffffff f 800] ------- [15:255 -1:255 32 0] 
r 0.941536346 _11_ RTR  --- 11 message 32 [0 ffffffff f 800] ------- [15:255 -1:255 32 0] 
r 0.941536346 _19_ RTR  --- 11 message 32 [0 ffffffff f 800] ------- [15:255 -1:255 32 0] 
r 0.941536464 _10_ RTR  --- 11 message 32 [0 ffffffff f 800] ------- [15:255 -1:255 32 0] 
r 0.941536581 _9_ RTR  --- 11 message 32 [0 ffffffff f 800] ------- [15:255 -1:255 32 0] 
r 0.941536699 _8_ RTR  --- 11 message 32 [0 ffffffff f 800] ------- [15:255 -1:255 32 0] 
s 1.000000000 _0_ AGT  --- 12 tcp 40 [0 0 0 0] ------- [0:0 10:0 32 0] [0 0] 0 0
r 1.000000000 _0_ RTR  --- 12 tcp 40 [0 0 0 0] ------- [0:0 10:0 32 0] [0 0] 0 0
s 1.000000000 _1_ AGT  --- 13 tcp 40 [0 0 0 0] ------- [1:0 11:0 32 0] [0 0] 0 0
r 1.000000000 _1_ RTR  --- 13 tcp 40 [0 0 0 0] ------- [1:0 11:0 32 0] [0 0] 0 0
s 1.000000000 _2_ AGT  --- 14 tcp 40 [0 0 0 0] ------- [2:0 12:0 32 0] [0 0] 0 0
r 1.000000000 _2_ RTR  --- 14 tcp 40 [0 0 0 0] ------- [2:0 12:0 32 0] [0 0] 0 0
s 1.000000000 _3_ AGT  --- 15 tcp 40 [0 0 0 0] ------- [3:0 13:0 32 0] [0 0] 0 0
r 1.000000000 _3_ RTR  --- 15 tcp 40 [0 0 0 0] ------- [3:0 13:0 32 0] [0 0] 0 0
s 1.000000000 _4_ AGT  --- 16 tcp 40 [0 0 0 0] ------- [4:0 14:0 32 0] [0 0] 0 0
r 1.000000000 _4_ RTR  --- 16 tcp 40 [0 0 0 0] ------- [4:0 14:0 32 0] [0 0] 0 0
s 1.000000000 _5_ AGT  --- 17 tcp 40 [0 0 0 0] ------- [5:0 15:0 32 0] [0 0] 0 0
r 1.000000000 _5_ RTR  --- 17 tcp 40 [0 0 0 0] ------- [5:0 15:0 32 0] [0 0] 0 0
s 1.000000000 _6_ AGT  --- 18 tcp 40 [0 0 0 0] ------- [6:0 16:0 32 0] [0 0] 0 0
r 1.000000000 _6_ RTR  --- 18 tcp 40 [0 0 0 0] ------- [6:0 16:0 32 0] [0 0] 0 0
s 1.000000000 _7_ AGT  --- 19 tcp 40 [0 0 0 0] ------- [7:0 17:0 32 0] [0 0] 0 0
r 1.000000000 _7_ RTR  --- 19 tcp 40 [0 0 0 0] ------- [7:0 17:0 32 0] [0 0] 0 0
s 1.000000000 _8_ AGT  --- 20 tcp 40 [0 0 0 0] ------- [8:0 18:0 32 0] [0 0] 0 0
r 1.000000000 _8_ RTR  --- 20 tcp 40 [0 0 0 0] ------- [8:0 18:0 32 0] [0 0] 0 0
s 1.000000000 _9_ AGT  --- 21 tcp 40 [0 0 0 0] ------- [9:0 19:0 32 0] [0 0] 0 0
r 1.000000000 _9_ RTR  --- 21 tcp 40 [0 0 0 0] ------- [9:0 19:0 32 0] [0 0] 0 0
s 1.043158714 _14_ RTR  --- 22 message 32 [0 0 0 0] ------- [14:255 -1:255 32 0] 
r 1.044558832 _13_ RTR  --- 22 message 32 [0 ffffffff e 800] ------- [14:255 -1:255 32 0] 
r 1.044558832 _15_ RTR  --- 22 message 32 [0 ffffffff e 800] ------- [14:255 -1:255 32 0] 
r 1.044558950 _12_ RTR  --- 22 message 32 [0 ffffffff e 800] ------- [14:255 -1:255 32 0] 
r 1.044558950 _16_ RTR  --- 22 message 32 [0 ffffffff e 800] ------- [14:255 -1:255 32 0] 
r 1.044559068 _11_ RTR  --- 22 message 32 [0 ffffffff e 800] ------- [14:255 -1:255 32 0] 
r 1.044559068 _17_ RTR  --- 22 message 32 [0 ffffffff e 800] ------- [14:255 -1:255 32 0] 
r 1.044559186 _10_ RTR  --- 22 message 32 [0 ffffffff e 800] ------- [14:255 -1:255 32 0] 
r 1.044559186 _18_ RTR  --- 22 message 32 [0 ffffffff e 800] ------- [14:255 -1:255 32 0] 
r 1.044559304 _9_ RTR  --- 22 message 32 [0 ffffffff e 800] ------- [14:255 -1:255 32 0] 
r 1.044559304 _19_ RTR  --- 22 message 32 [0 ffffffff e 800] ------- [14:255 -1:255 32 0] 
r 1.044559422 _8_ RTR  --- 22 message 32 [0 ffffffff e 800] ------- [14:255 -1:255 32 0] 
r 1.044559539 _7_ RTR  --- 22 message 32 [0 ffffffff e 800] ------- [14:255 -1:255 32 0] 
s 1.285719404 _4_ RTR  --- 23 message 32 [0 0 0 0] ------- [4:255 -1:255 32 0] 
r 1.287079522 _3_ RTR  --- 23 message 32 [0 ffffffff 4 800] ------- [4:255 -1:255 32 0] 
r 1.287079522 _5_ RTR  --- 23 message 32 [0 ffffffff 4 800] ------- [4:255 -1:255 32 0] 
r 1.287079640 _2_ RTR  --- 23 message 32 [0 ffffffff 4 800] ------- [4:255 -1:255 32 0] 
r 1.287079640 _6_ RTR  --- 23 message 32 [0 ffffffff 4 800] ------- [4:255 -1:255 32 0] 
r 1.287079758 _1_ RTR  --- 23 message 32 [0 ffffffff 4 800] ------- [4:255 -1:255 32 0] 
r 1.287079758 _7_ RTR  --- 23 message 32 [0 ffffffff 4 800] ------- [4:255 -1:255 32 0] 
r 1.287079876 _0_ RTR  --- 23 message 32 [0 ffffffff 4 800] ------- [4:255 -1:255 32 0] 
r 1.287079876 _8_ RTR  --- 23 message 32 [0 ffffffff 4 800] ------- [4:255 -1:255 32 0] 
r 1.287079993 _9_ RTR  --- 23 message 32 [0 ffffffff 4 800] ------- [4:255 -1:255 32 0] 
r 1.287080111 _10_ RTR  --- 23 message 32 [0 ffffffff 4 800] ------- [4:255 -1:255 32 0] 
r 1.287080229 _11_ RTR  --- 23 message 32 [0 ffffffff 4 800] ------- [4:255 -1:255 32 0] 
s 1.386113549 _16_ RTR  --- 24 message 32 [0 0 0 0] ------- [16:255 -1:255 32 0] 
r 1.387273667 _15_ RTR  --- 24 message 32 [0 ffffffff 10 800] ------- [16:255 -1:255 32 0] 
r 1.387273667 _17_ RTR  --- 24 message 32 [0 ffffffff 10 800] ------- [16:255 -1:255 32 0] 
r 1.387273785 _14_ RTR  --- 24 message 32 [0 ffffffff 10 800] ------- [16:255 -1:255 32 0] 
r 1.387273785 _18_ RTR  --- 24 message 32 [0 ffffffff 10 800] ------- [16:255 -1:255 32 0] 
r 1.387273903 _13_ RTR  --- 24 message 32 [0 ffffffff 10 800] ------- [16:255 -1:255 32 0] 
r 1.387273903 _19_ RTR  --- 24 message 32 [0 ffffffff 10 800] ------- [16:255 -1:255 32 0] 
r 1.387274021 _12_ RTR  --- 24 message 32 [0 ffffffff 10 800] ------- [16:255 -1:255 32 0] 
r 1.387274138 _11_ RTR  --- 24 message 32 [0 ffffffff 10 800] ------- [16:255 -1:255 32 0] 
r 1.387274256 _10_ RTR  --- 24 message 32 [0 ffffffff 10 800] ------- [16:255 -1:255 32 0] 
r 1.387274374 _9_ RTR  --- 24 message 32 [0 ffffffff 10 800] ------- [16:255 -1:255 32 0] 
s 1.614058853 _10_ RTR  --- 25 message 32 [0 0 0 0] ------- [10:255 -1:255 32 0] 
r 1.615058971 _9_ RTR  --- 25 message 32 [0 ffffffff a 800] ------- [10:255 -1:255 32 0] 
r 1.615058971 _11_ RTR  --- 25 message 32 [0 ffffffff a 800] ------- [10:255 -1:255 32 0] 
r 1.615059088 _8_ RTR  --- 25 message 32 [0 ffffffff a 800] ------- [10:255 -1:255 32 0] 
r 1.615059088 _12_ RTR  --- 25 message 32 [0 ffffffff a 800] ------- [10:255 -1:255 32 0] 
r 1.615059206 _7_ RTR  --- 25 message 32 [0 ffffffff a 800] ------- [10:255 -1:255 32 0] 
r 1.615059206 _13_ RTR  --- 25 message 32 [0 ffffffff a 800] ------- [10:255 -1:255 32 0] 
r 1.615059324 _6_ RTR  --- 25 message 32 [0 ffffffff a 800] ------- [10:255 -1:255 32 0] 
r 1.615059324 _14_ RTR  --- 25 message 32 [0 ffffffff a 800] ------- [10:255 -1:255 32 0] 
r 1.615059442 _5_ RTR  --- 25 message 32 [0 ffffffff a 800] ------- [10:255 -1:255 32 0] 
r 1.615059442 _15_ RTR  --- 25 message 32 [0 ffffffff a 800] ------- [10:255 -1:255 32 0] 
r 1.615059560 _4_ RTR  --- 25 message 32 [0 ffffffff a 800] ------- [10:255 -1:255 32 0] 
r 1.615059560 _16_ RTR  --- 25 message 32 [0 ffffffff a 800] ------- [10:255 -1:255 32 0] 
r 1.615059678 _3_ RTR  --- 25 message 32 [0 ffffffff a 800] ------- [10:255 -1:255 32 0] 
r 1.615059678 _17_ RTR  --- 25 message 32 [0 ffffffff a 800] ------- [10:255 -1:255 32 0] 
s 1.681766466 _1_ RTR  --- 26 message 32 [0 0 0 0] ------- [1:255 -1:255 32 0] 
r 1.682806584 _0_ RTR  --- 26 message 32 [0 ffffffff 1 800] ------- [1:255 -1:255 32 0] 
r 1.682806584 _2_ RTR  --- 26 message 32 [0 ffffffff 1 800] ------- [1:255 -1:255 32 0] 
r 1.682806702 _3_ RTR  --- 26 message 32 [0 ffffffff 1 800] ------- [1:255 -1:255 32 0] 
r 1.682806819 _4_ RTR  --- 26 message 32 [0 ffffffff 1 800] ------- [1:255 -1:255 32 0] 
r 1.682806937 _5_ RTR  --- 26 message 32 [0 ffffffff 1 800] ------- [1:255 -1:255 32 0] 
r 1.682807055 _6_ RTR  --- 26 message 32 [0 ffffffff 1 800] ------- [1:255 -1:255 32 0] 
r 1.682807173 _7_ RTR  --- 26 message 32 [0 ffffffff 1 800] ------- [1:255 -1:255 32 0] 
r 1.682807291 _8_ RTR  --- 26 message 32 [0 ffffffff 1 800] ------- [1:255 -1:255 32 0] 
s 1.683302879 _18_ RTR  --- 27 message 32 [0 0 0 0] ------- [18:255 -1:255 32 0] 
r 1.684262997 _17_ RTR  --- 27 message 32 [0 ffffffff 12 800] ------- [18:255 -1:255 32 0] 
r 1.684262997 _19_ RTR  --- 27 message 32 [0 ffffffff 12 800] ------- [18:255 -1:255 32 0] 
r 1.684263115 _16_ RTR  --- 27 message 32 [0 ffffffff 12 800] ------- [18:255 -1:255 32 0] 
r 1.684263233 _15_ RTR  --- 27 message 32 [0 ffffffff 12 800] ------- [18:255 -1:255 32 0] 
r 1.684263350 _14_ RTR  --- 27 message 32 [0 ffffffff 12 800] ------- [18:255 -1:255 32 0] 
r 1.684263468 _13_ RTR  --- 27 message 32 [0 ffffffff 12 800] ------- [18:255 -1:255 32 0] 
r 1.684263586 _12_ RTR  --- 27 message 32 [0 ffffffff 12 800] ------- [18:255 -1:255 32 0] 
r 1.684263704 _11_ RTR  --- 27 message 32 [0 ffffffff 12 800] ------- [18:255 -1:255 32 0] 
s 1.724453976 _17_ RTR  --- 29 message 32 [0 0 0 0] ------- [17:255 -1:255 32 0] 
r 1.725434094 _16_ RTR  --- 29 message 32 [0 ffffffff 11 800] ------- [17:255 -1:255 32 0] 
r 1.725434094 _18_ RTR  --- 29 message 32 [0 ffffffff 11 800] ------- [17:255 -1:255 32 0] 
r 1.725434212 _15_ RTR  --- 29 message 32 [0 ffffffff 11 800] ------- [17:255 -1:255 32 0] 
r 1.725434212 _19_ RTR  --- 29 message 32 [0 ffffffff 11 800] ------- [17:255 -1:255 32 0] 
r 1.725434330 _14_ RTR  --- 29 message 32 [0 ffffffff 11 800] ------- [17:255 -1:255 32 0] 
r 1.725434447 _13_ RTR  --- 29 message 32 [0 ffffffff 11 800] ------- [17:255 -1:255 32 0] 
r 1.725434565 _12_ RTR  --- 29 message 32 [0 ffffffff 11 800] ------- [17:255 -1:255 32 0] 
r 1.725434683 _11_ RTR  --- 29 message 32 [0 ffffffff 11 800] ------- [17:255 -1:255 32 0] 
r 1.725434801 _10_ RTR  --- 29 message 32 [0 ffffffff 11 800] ------- [17:255 -1:255 32 0] 
s 1.727513713 _6_ RTR  --- 28 message 32 [0 0 0 0] ------- [6:255 -1:255 32 0] 
r 1.728593831 _5_ RTR  --- 28 message 32 [0 ffffffff 6 800] ------- [6:255 -1:255 32 0] 
r 1.728593831 _7_ RTR  --- 28 message 32 [0 ffffffff 6 800] ------- [6:255 -1:255 32 0] 
r 1.728593949 _4_ RTR  --- 28 message 32 [0 ffffffff 6 800] ------- [6:255 -1:255 32 0] 
r 1.728593949 _8_ RTR  --- 28 message 32 [0 ffffffff 6 800] ------- [6:255 -1:255 32 0] 
r 1.728594067 _3_ RTR  --- 28 message 32 [0 ffffffff 6 800] ------- [6:255 -1:255 32 0] 
r 1.728594067 _9_ RTR  --- 28 message 32 [0 ffffffff 6 800] ------- [6:255 -1:255 32 0] 
r 1.728594185 _2_ RTR  --- 28 message 32 [0 ffffffff 6 800] ------- [6:255 -1:255 32 0] 
r 1.728594185 _10_ RTR  --- 28 message 32 [0 ffffffff 6 800] ------- [6:255 -1:255 32 0] 
r 1.728594302 _1_ RTR  --- 28 message 32 [0 ffffffff 6 800] ------- [6:255 -1:255 32 0] 
r 1.728594302 _11_ RTR  --- 28 message 32 [0 ffffffff 6 800] ------- [6:255 -1:255 32 0] 
r 1.728594420 _0_ RTR  --- 28 message 32 [0 ffffffff 6 800] ------- [6:255 -1:255 32 0] 
r 1.728594420 _12_ RTR  --- 28 message 32 [0 ffffffff 6 800] ------- [6:255 -1:255 32 0] 
r 1.728594538 _13_ RTR  --- 28 message 32 [0 ffffffff 6 800] ------- [6:255 -1:255 32 0] 
s 4.000000000 _0_ AGT  --- 30 tcp 40 [0 0 0 0] ------- [0:0 10:0 32 0] [0 0] 0 0
r 4.000000000 _0_ RTR  --- 30 tcp 40 [0 0 0 0] ------- [0:0 10:0 32 0] [0 0] 0 0
s 4.000000000 _1_ AGT  --- 31 tcp 40 [0 0 0 0] ------- [1:0 11:0 32 0] [0 0] 0 0
r 4.000000000 _1_ RTR  --- 31 tcp 40 [0 0 0 0] ------- [1:0 11:0 32 0] [0 0] 0 0
s 4.000000000 _2_ AGT  --- 32 tcp 40 [0 0 0 0] ------- [2:0 12:0 32 0] [0 0] 0 0
r 4.000000000 _2_ RTR  --- 32 tcp 40 [0 0 0 0] ------- [2:0 12:0 32 0] [0 0] 0 0
s 4.000000000 _3_ AGT  --- 33 tcp 40 [0 0 0 0] ------- [3:0 13:0 32 0] [0 0] 0 0
r 4.000000000 _3_ RTR  --- 33 tcp 40 [0 0 0 0] ------- [3:0 13:0 32 0] [0 0] 0 0
s 4.000000000 _4_ AGT  --- 34 tcp 40 [0 0 0 0] ------- [4:0 14:0 32 0] [0 0] 0 0
r 4.000000000 _4_ RTR  --- 34 tcp 40 [0 0 0 0] ------- [4:0 14:0 32 0] [0 0] 0 0
s 4.000000000 _5_ AGT  --- 35 tcp 40 [0 0 0 0] ------- [5:0 15:0 32 0] [0 0] 0 0
r 4.000000000 _5_ RTR  --- 35 tcp 40 [0 0 0 0] ------- [5:0 15:0 32 0] [0 0] 0 0
s 4.000000000 _6_ AGT  --- 36 tcp 40 [0 0 0 0] ------- [6:0 16:0 32 0] [0 0] 0 0
r 4.000000000 _6_ RTR  --- 36 tcp 40 [0 0 0 0] ------- [6:0 16:0 32 0] [0 0] 0 0
s 4.000000000 _7_ AGT  --- 37 tcp 40 [0 0 0 0] ------- [7:0 17:0 32 0] [0 0] 0 0
r 4.000000000 _7_ RTR  --- 37 tcp 40 [0 0 0 0] ------- [7:0 17:0 32 0] [0 0] 0 0
s 4.000000000 _8_ AGT  --- 38 tcp 40 [0 0 0 0] ------- [8:0 18:0 32 0] [0 0] 0 0
r 4.000000000 _8_ RTR  --- 38 tcp 40 [0 0 0 0] ------- [8:0 18:0 32 0] [0 0] 0 0
s 4.000000000 _9_ AGT  --- 39 tcp 40 [0 0 0 0] ------- [9:0 19:0 32 0] [0 0] 0 0
r 4.000000000 _9_ RTR  --- 39 tcp 40 [0 0 0 0] ------- [9:0 19:0 32 0] [0 0] 0 0
s 10.000000000 _0_ AGT  --- 40 tcp 40 [0 0 0 0] ------- [0:0 10:0 32 0] [0 0] 0 0
r 10.000000000 _0_ RTR  --- 40 tcp 40 [0 0 0 0] ------- [0:0 10:0 32 0] [0 0] 0 0
s 10.000000000 _1_ AGT  --- 41 tcp 40 [0 0 0 0] ------- [1:0 11:0 32 0] [0 0] 0 0
r 10.000000000 _1_ RTR  --- 41 tcp 40 [0 0 0 0] ------- [1:0 11:0 32 0] [0 0] 0 0
s 10.000000000 _2_ AGT  --- 42 tcp 40 [0 0 0 0] ------- [2:0 12:0 32 0] [0 0] 0 0
r 10.000000000 _2_ RTR  --- 42 tcp 40 [0 0 0 0] ------- [2:0 12:0 32 0] [0 0] 0 0
s 10.000000000 _3_ AGT  --- 43 tcp 40 [0 0 0 0] ------- [3:0 13:0 32 0] [0 0] 0 0
r 10.000000000 _3_ RTR  --- 43 tcp 40 [0 0 0 0] ------- [3:0 13:0 32 0] [0 0] 0 0
s 10.000000000 _4_ AGT  --- 44 tcp 40 [0 0 0 0] ------- [4:0 14:0 32 0] [0 0] 0 0
r 10.000000000 _4_ RTR  --- 44 tcp 40 [0 0 0 0] ------- [4:0 14:0 32 0] [0 0] 0 0
s 10.000000000 _5_ AGT  --- 45 tcp 40 [0 0 0 0] ------- [5:0 15:0 32 0] [0 0] 0 0
r 10.000000000 _5_ RTR  --- 45 tcp 40 [0 0 0 0] ------- [5:0 15:0 32 0] [0 0] 0 0
s 10.000000000 _6_ AGT  --- 46 tcp 40 [0 0 0 0] ------- [6:0 16:0 32 0] [0 0] 0 0
r 10.000000000 _6_ RTR  --- 46 tcp 40 [0 0 0 0] ------- [6:0 16:0 32 0] [0 0] 0 0
s 10.000000000 _7_ AGT  --- 47 tcp 40 [0 0 0 0] ------- [7:0 17:0 32 0] [0 0] 0 0
r 10.000000000 _7_ RTR  --- 47 tcp 40 [0 0 0 0] ------- [7:0 17:0 32 0] [0 0] 0 0
s 10.000000000 _8_ AGT  --- 48 tcp 40 [0 0 0 0] ------- [8:0 18:0 32 0] [0 0] 0 0
r 10.000000000 _8_ RTR  --- 48 tcp 40 [0 0 0 0] ------- [8:0 18:0 32 0] [0 0] 0 0
s 10.000000000 _9_ AGT  --- 49 tcp 40 [0 0 0 0] ------- [9:0 19:0 32 0] [0 0] 0 0
r 10.000000000 _9_ RTR  --- 49 tcp 40 [0 0 0 0] ------- [9:0 19:0 32 0] [0 0] 0 0
s 11.799376818 _2_ RTR  --- 50 message 32 [0 0 0 0] ------- [2:255 -1:255 32 0] 
r 11.800716935 _1_ RTR  --- 50 message 32 [0 ffffffff 2 800] ------- [2:255 -1:255 32 0] 
r 11.800716935 _3_ RTR  --- 50 message 32 [0 ffffffff 2 800] ------- [2:255 -1:255 32 0] 
r 11.800717053 _0_ RTR  --- 50 message 32 [0 ffffffff 2 800] ------- [2:255 -1:255 32 0] 
r 11.800717053 _4_ RTR  --- 50 message 32 [0 ffffffff 2 800] ------- [2:255 -1:255 32 0] 
r 11.800717171 _5_ RTR  --- 50 message 32 [0 ffffffff 2 800] ------- [2:255 -1:255 32 0] 
r 11.800717289 _6_ RTR  --- 50 message 32 [0 ffffffff 2 800] ------- [2:255 -1:255 32 0] 
r 11.800717407 _7_ RTR  --- 50 message 32 [0 ffffffff 2 800] ------- [2:255 -1:255 32 0] 
r 11.800717525 _8_ RTR  --- 50 message 32 [0 ffffffff 2 800] ------- [2:255 -1:255 32 0] 
r 11.800717643 _9_ RTR  --- 50 message 32 [0 ffffffff 2 800] ------- [2:255 -1:255 32 0] 
s 12.064560737 _8_ RTR  --- 51 message 32 [0 0 0 0] ------- [8:255 -1:255 32 0] 
r 12.065400855 _7_ RTR  --- 51 message 32 [0 ffffffff 8 800] ------- [8:255 -1:255 32 0] 
r 12.065400855 _9_ RTR  --- 51 message 32 [0 ffffffff 8 800] ------- [8:255 -1:255 32 0] 
r 12.065400973 _6_ RTR  --- 51 message 32 [0 ffffffff 8 800] ------- [8:255 -1:255 32 0] 
r 12.065400973 _10_ RTR  --- 51 message 32 [0 ffffffff 8 800] ------- [8:255 -1:255 32 0] 
r 12.065401091 _5_ RTR  --- 51 message 32 [0 ffffffff 8 800] ------- [8:255 -1:255 32 0] 
r 12.065401091 _11_ RTR  --- 51 message 32 [0 ffffffff 8 800] ------- [8:255 -1:255 32 0] 
r 12.065401209 _4_ RTR  --- 51 message 32 [0 ffffffff 8 800] ------- [8:255 -1:255 32 0] 
r 12.065401209 _12_ RTR  --- 51 message 32 [0 ffffffff 8 800] ------- [8:255 -1:255 32 0] 
r 12.065401326 _3_ RTR  --- 51 message 32 [0 ffffffff 8 800] ------- [8:255 -1:255 32 0] 
r 12.065401326 _13_ RTR  --- 51 message 32 [0 ffffffff 8 800] ------- [8:255 -1:255 32 0] 
r 12.065401444 _2_ RTR  --- 51 message 32 [0 ffffffff 8 800] ------- [8:255 -1:255 32 0] 
r 12.065401444 _14_ RTR  --- 51 message 32 [0 ffffffff 8 800] ------- [8:255 -1:255 32 0] 
r 12.065401562 _1_ RTR  --- 51 message 32 [0 ffffffff 8 800] ------- [8:255 -1:255 32 0] 
r 12.065401562 _15_ RTR  --- 51 message 32 [0 ffffffff 8 800] ------- [8:255 -1:255 32 0] 
s 12.093196398 _5_ RTR  --- 54 message 32 [0 0 0 0] ------- [5:255 -1:255 32 0] 
s 12.093350931 _1_ RTR  --- 53 message 32 [0 0 0 0] ------- [1:255 -1:255 32 0] 
s 12.093425538 _4_ RTR  --- 52 message 32 [0 0 0 0] ------- [4:255 -1:255 32 0] 
s 12.093969466 _6_ RTR  --- 56 message 32 [0 0 0 0] ------- [6:255 -1:255 32 0] 
r 12.094196516 _4_ RTR  --- 54 message 32 [0 ffffffff 5 800] ------- [5:255 -1:255 32 0] 
r 12.094196516 _6_ RTR  --- 54 message 32 [0 ffffffff 5 800] ------- [5:255 -1:255 32 0] 
r 12.094196634 _3_ RTR  --- 54 message 32 [0 ffffffff 5 800] ------- [5:255 -1:255 32 0] 
r 12.094196634 _7_ RTR  --- 54 message 32 [0 ffffffff 5 800] ------- [5:255 -1:255 32 0] 
r 12.094196752 _2_ RTR  --- 54 message 32 [0 ffffffff 5 800] ------- [5:255 -1:255 32 0] 
r 12.094196752 _8_ RTR  --- 54 message 32 [0 ffffffff 5 800] ------- [5:255 -1:255 32 0] 
r 12.094196870 _1_ RTR  --- 54 message 32 [0 ffffffff 5 800] ------- [5:255 -1:255 32 0] 
r 12.094196870 _9_ RTR  --- 54 message 32 [0 ffffffff 5 800] ------- [5:255 -1:255 32 0] 
r 12.094196988 _0_ RTR  --- 54 message 32 [0 ffffffff 5 800] ------- [5:255 -1:255 32 0] 